REMARK  Name = 86398
REMARK  2 active torsions:
REMARK  status: ('A' for Active; 'I' for Inactive)
REMARK    1  A    between atoms: C_7  and  C_9
REMARK    2  A    between atoms: C_14  and  C_18
REMARK                            x       y       z     vdW  Elec       q    Type
REMARK                         _______ _______ _______ _____ _____    ______ ____
ROOT
ATOM      1  F   UNL     1       1.251   0.267   0.345  0.00  0.00    -0.125 F 
ATOM      2  F   UNL     1       3.040   0.252  -0.913  0.00  0.00    -0.125 F 
ATOM      3  O   UNL     1       3.171   1.141   1.161  0.00  0.00    -0.395 OA
ATOM      4  O   UNL     1       2.891  -1.225   0.794  0.00  0.00    -0.395 OA
ATOM      5  C   UNL     1       4.638   0.884   3.129  0.00  0.00    +0.030 A 
ATOM      6  C   UNL     1       3.857   0.402   2.082  0.00  0.00    +0.180 A 
ATOM      7  C   UNL     1       3.680  -0.953   1.869  0.00  0.00    +0.173 A 
ATOM      8  C   UNL     1       5.235  -0.085   3.956  0.00  0.00    +0.012 A 
ATOM      9  C   UNL     1       2.597   0.105   0.361  0.00  0.00    +0.589 C 
ATOM     10  C   UNL     1       4.254  -1.908   2.679  0.00  0.00    +0.050 A 
ATOM     11  C   UNL     1       5.040  -1.463   3.738  0.00  0.00    +0.004 A 
ENDROOT
BRANCH   5  13
ATOM     12  N   UNL     1       5.136   4.491   2.923  0.00  0.00    -0.365 N 
ATOM     13  C   UNL     1       4.852   2.310   3.377  0.00  0.00    +0.020 A 
ATOM     14  C   UNL     1       5.070   3.028   4.597  0.00  0.00    +0.077 A 
ATOM     15  C   UNL     1       4.907   3.258   2.368  0.00  0.00    +0.092 A 
ATOM     16  C   UNL     1       5.248   4.361   4.280  0.00  0.00    +0.102 A 
ATOM     17  H   UNL     1       5.214   5.358   2.406  0.00  0.00    +0.165 HD
BRANCH  14  19
ATOM     18  N   UNL     1       5.160   2.105   7.017  0.00  0.00    -0.191 NA
ATOM     19  C   UNL     1       5.106   2.523   5.935  0.00  0.00    +0.101 C 
ENDBRANCH  14  19
ENDBRANCH   5  13
TORSDOF 2
