REMARK  Name = 37517
REMARK  4 active torsions:
REMARK  status: ('A' for Active; 'I' for Inactive)
REMARK    1  A    between atoms: N_7  and  C_14
REMARK    2  A    between atoms: N_8  and  C_12
REMARK    3  A    between atoms: C_12  and  C_15
REMARK    4  A    between atoms: C_12  and  C_16
REMARK                            x       y       z     vdW  Elec       q    Type
REMARK                         _______ _______ _______ _____ _____    ______ ____
ROOT
ATOM      1  O   UNL     1      -1.725  -3.828  -1.470  0.00  0.00    -0.251 OA
ATOM      2  O   UNL     1       1.581  -4.252   1.708  0.00  0.00    -0.273 OA
ATOM      3  O   UNL     1      -0.413  -7.816  -1.341  0.00  0.00    -0.252 OA
ATOM      4  N   UNL     1      -0.504  -5.634  -0.679  0.00  0.00    -0.200 N 
ATOM      5  N   UNL     1      -0.043  -3.579   0.152  0.00  0.00    -0.192 N 
ATOM      6  N   UNL     1      -1.612  -6.336  -2.603  0.00  0.00    -0.297 N 
ATOM      7  C   UNL     1       0.451  -5.871   0.362  0.00  0.00    +0.216 C 
ATOM      8  C   UNL     1      -0.852  -4.272  -0.734  0.00  0.00    +0.324 C 
ATOM      9  C   UNL     1       0.762  -4.472   0.823  0.00  0.00    +0.245 C 
ATOM     10  C   UNL     1      -0.836  -6.678  -1.530  0.00  0.00    +0.310 C 
ATOM     11  H   UNL     1      -2.008  -5.398  -2.601  0.00  0.00    +0.151 HD
ENDROOT
BRANCH   5  14
ATOM     12 CL   UNL     1       2.444   0.601   1.900  0.00  0.00    -0.083 Cl
ATOM     13 CL   UNL     1      -2.492   0.970  -0.188  0.00  0.00    -0.083 Cl
ATOM     14  C   UNL     1      -0.040  -2.164   0.362  0.00  0.00    +0.048 A 
ATOM     15  C   UNL     1      -1.127  -1.358  -0.009  0.00  0.00    +0.044 A 
ATOM     16  C   UNL     1       1.062  -1.522   0.956  0.00  0.00    +0.044 A 
ATOM     17  C   UNL     1       1.066  -0.142   1.184  0.00  0.00    +0.044 A 
ATOM     18  C   UNL     1      -1.119   0.021   0.237  0.00  0.00    +0.044 A 
ATOM     19  C   UNL     1      -0.027   0.637   0.835  0.00  0.00    +0.040 A 
ENDBRANCH   5  14
BRANCH   6  20
ATOM     20  C   UNL     1      -2.068  -7.263  -3.633  0.00  0.00    +0.068 C 
ATOM     21  C   UNL     1      -0.917  -7.879  -4.429  0.00  0.00    +0.027 C 
ATOM     22  C   UNL     1      -2.987  -8.344  -3.070  0.00  0.00    +0.027 C 
ENDBRANCH   6  20
TORSDOF 2
